Generated by trjconv : Alanine in vacuum in water t=   0.00000
   22
    1ACE   HH31    1   1.681   1.362   2.493 -0.9055  0.0601  2.4996
    1ACE    CH3    2   1.612   1.444   2.472 -0.4947 -0.1946 -0.1733
    1ACE   HH32    3   1.529   1.404   2.414 -1.7353 -0.6068  1.7835
    1ACE   HH33    4   1.655   1.526   2.413  1.0151 -1.0064 -0.2572
    1ACE      C    5   1.558   1.493   2.603  0.1544 -0.0337 -0.1842
    1ACE      O    6   1.566   1.418   2.698  0.3354 -0.3345  0.0025
    2ALA      N    7   1.501   1.614   2.609 -0.7656  0.8081  0.4358
    2ALA      H    8   1.492   1.677   2.530 -1.9410  2.2102  1.6237
    2ALA     CA    9   1.464   1.672   2.732  0.1868 -0.0665  0.0863
    2ALA     HA   10   1.542   1.648   2.804  0.1944 -0.9735 -0.2053
    2ALA     CB   11   1.454   1.824   2.711  0.3049  0.1117 -0.0431
    2ALA    HB1   12   1.451   1.888   2.799  1.3125  0.4659 -0.2559
    2ALA    HB2   13   1.541   1.848   2.650  1.3428  1.0295  1.7173
    2ALA    HB3   14   1.373   1.855   2.645  1.8230  1.9067 -1.1453
    2ALA      C   15   1.333   1.606   2.783 -0.2059 -0.2272  0.0012
    2ALA      O   16   1.223   1.649   2.740  0.5368  0.1524 -0.1177
    3NME      N   17   1.349   1.514   2.879  0.1791 -0.2192 -0.1592
    3NME      H   18   1.444   1.492   2.904  0.1004  0.4306  0.7646
    3NME    CH3   19   1.234   1.456   2.945 -0.3210 -0.3019 -0.3535
    3NME   HH31   20   1.156   1.524   2.981 -0.6740 -1.1677  0.5762
    3NME   HH32   21   1.189   1.381   2.879  0.4998  0.4388 -1.8125
    3NME   HH33   22   1.264   1.412   3.040 -2.2490  0.4041  0.6382
   3.02334   3.02334   3.02334
