Generated by trjconv : Alanine in vacuum in water t=   0.00000
   22
    1ACE   HH31    1   1.208   1.314   2.992  3.3457  0.0095  0.3054
    1ACE    CH3    2   1.214   1.340   2.887  0.3091 -0.6290 -0.1320
    1ACE   HH32    3   1.119   1.378   2.848 -0.7247 -3.6334 -0.8101
    1ACE   HH33    4   1.234   1.246   2.835 -0.2654 -1.6091  1.3336
    1ACE      C    5   1.336   1.426   2.873 -0.9822 -0.8749 -0.5582
    1ACE      O    6   1.412   1.447   2.969 -0.1108  0.5635 -0.7611
    2ALA      N    7   1.355   1.486   2.760  0.0371  0.3214  0.8302
    2ALA      H    8   1.281   1.486   2.692  0.5681 -0.4765  0.2344
    2ALA     CA    9   1.481   1.545   2.711  0.3464  0.5890  0.8945
    2ALA     HA   10   1.546   1.566   2.796  0.2408  1.0390  0.8687
    2ALA     CB   11   1.541   1.440   2.624 -0.3881  0.8748 -0.2483
    2ALA    HB1   12   1.647   1.460   2.607  0.4087 -2.8188 -0.5028
    2ALA    HB2   13   1.532   1.348   2.683  0.9551  0.4535 -0.6658
    2ALA    HB3   14   1.471   1.426   2.542 -1.2937  1.0355  0.4782
    2ALA      C   15   1.456   1.678   2.638  0.0885  0.3669 -0.1920
    2ALA      O   16   1.349   1.725   2.620  0.2901 -0.0808  0.4021
    3NME      N   17   1.568   1.736   2.596 -0.1829  0.2934  0.3970
    3NME      H   18   1.651   1.679   2.602 -0.6720 -0.2705  2.1666
    3NME    CH3   19   1.570   1.855   2.506  0.2336 -1.1884 -0.9124
    3NME   HH31   20   1.634   1.831   2.421  1.6012  0.5793 -0.4376
    3NME   HH32   21   1.470   1.878   2.470  0.4045  0.8754 -0.1834
    3NME   HH33   22   1.601   1.944   2.561 -0.7075 -1.1252 -0.4621
   3.02334   3.02334   3.02334
