Generated by trjconv : Alanine in vacuum in water t=   0.00000
   22
    1ACE   HH31    1   1.026   1.618   2.589 -0.8808 -0.1128 -0.3170
    1ACE    CH3    2   1.102   1.542   2.605 -0.0675  0.8475  0.5554
    1ACE   HH32    3   1.136   1.502   2.510 -1.1749 -0.3229  0.6226
    1ACE   HH33    4   1.071   1.460   2.670  1.8123 -1.0431 -0.8003
    1ACE      C    5   1.217   1.599   2.670 -0.1023 -0.5284 -0.2958
    1ACE      O    6   1.216   1.718   2.699  0.0289 -0.0544 -0.1033
    2ALA      N    7   1.312   1.517   2.711 -0.2927 -0.5140 -0.5308
    2ALA      H    8   1.308   1.421   2.681  0.4941  0.0507 -2.6055
    2ALA     CA    9   1.425   1.548   2.798  0.1290  0.7087  0.5146
    2ALA     HA   10   1.408   1.652   2.826 -0.1029  0.2895  2.0443
    2ALA     CB   11   1.424   1.454   2.920 -0.1157  0.3096 -0.6352
    2ALA    HB1   12   1.469   1.358   2.895  2.8341  1.2876  0.4629
    2ALA    HB2   13   1.497   1.489   2.993  1.2879 -2.1179 -0.7704
    2ALA    HB3   14   1.324   1.436   2.960 -0.2859  0.2239 -1.0914
    2ALA      C   15   1.557   1.552   2.714  0.6604 -0.6020 -0.0316
    2ALA      O   16   1.571   1.503   2.599 -0.2007 -0.0648  0.6288
    3NME      N   17   1.658   1.620   2.764  0.5367  0.0486 -0.2925
    3NME      H   18   1.641   1.677   2.845 -0.3559  1.5562 -1.4796
    3NME    CH3   19   1.789   1.626   2.700 -0.5359 -0.2162  0.3604
    3NME   HH31   20   1.787   1.679   2.604 -1.3612  1.5828  1.3354
    3NME   HH32   21   1.857   1.673   2.770 -1.8542  0.9697  0.8787
    3NME   HH33   22   1.833   1.527   2.689 -0.6968 -0.1873 -0.7527
   3.02334   3.02334   3.02334
