Generated by trjconv : Alanine in vacuum in water t=   0.00000
   22
    1ACE   HH31    1   1.698   1.483   2.876  0.4565  0.4911 -3.9040
    1ACE    CH3    2   1.686   1.589   2.897  0.5080 -0.1235  0.2168
    1ACE   HH32    3   1.785   1.627   2.870  1.3939 -0.8664  2.2082
    1ACE   HH33    4   1.689   1.615   3.002 -0.8677 -0.6409  0.4085
    1ACE      C    5   1.570   1.650   2.815  0.7524 -0.0002  0.6039
    1ACE      O    6   1.491   1.724   2.868 -0.0276  0.2232  0.4049
    2ALA      N    7   1.552   1.605   2.689 -0.6161 -0.0162 -0.2014
    2ALA      H    8   1.613   1.533   2.655  1.8282  0.7783  2.1770
    2ALA     CA    9   1.436   1.612   2.609 -0.0725  0.2819 -0.2007
    2ALA     HA   10   1.404   1.714   2.625  1.3567  0.7158  0.0293
    2ALA     CB   11   1.489   1.601   2.463 -0.5512  0.2532  0.2334
    2ALA    HB1   12   1.523   1.500   2.439 -1.2339 -0.0412  0.4796
    2ALA    HB2   13   1.407   1.627   2.396  0.1346  1.4762 -0.1750
    2ALA    HB3   14   1.568   1.673   2.445 -2.1544  1.5765 -2.0030
    2ALA      C   15   1.314   1.526   2.645 -0.7097 -0.5479  0.2457
    2ALA      O   16   1.236   1.498   2.561  0.5878 -0.1771 -0.3812
    3NME      N   17   1.307   1.486   2.776 -0.1737 -0.0913 -1.0944
    3NME      H   18   1.377   1.526   2.836  0.5405 -2.4581 -0.2431
    3NME    CH3   19   1.208   1.402   2.843  0.3410  0.0038  0.3958
    3NME   HH31   20   1.256   1.343   2.921  0.0289  0.6416  1.0858
    3NME   HH32   21   1.128   1.458   2.892 -0.7002  0.4382 -1.6858
    3NME   HH33   22   1.161   1.348   2.761 -1.8915  0.2314  1.4442
   3.02334   3.02334   3.02334
