Generated by trjconv : Alanine in vacuum in water t=   0.00000
   22
    1ACE   HH31    1   1.302   1.264   2.544 -0.5447 -0.6681 -1.9720
    1ACE    CH3    2   1.408   1.278   2.522 -0.0590  0.6584  0.7573
    1ACE   HH32    3   1.405   1.294   2.415 -2.1373  2.7325  1.0623
    1ACE   HH33    4   1.457   1.187   2.560  1.0363  1.1661  0.6007
    1ACE      C    5   1.451   1.406   2.596  0.3403 -0.0115 -0.8103
    1ACE      O    6   1.500   1.503   2.534  0.3599 -0.3474 -0.0684
    2ALA      N    7   1.424   1.417   2.727  0.2081 -0.6166 -0.0241
    2ALA      H    8   1.383   1.332   2.761 -2.8561  0.8929  0.4163
    2ALA     CA    9   1.433   1.525   2.827  0.2320 -0.4525  0.4260
    2ALA     HA   10   1.364   1.502   2.908 -3.3071  2.6723 -1.4031
    2ALA     CB   11   1.573   1.528   2.877 -0.3931  0.3424 -0.7695
    2ALA    HB1   12   1.637   1.574   2.801  0.9382  0.2358  0.2511
    2ALA    HB2   13   1.574   1.583   2.971 -1.1211  1.2708 -1.2756
    2ALA    HB3   14   1.604   1.429   2.910  0.0130  1.4319  2.4732
    2ALA      C   15   1.384   1.664   2.774 -0.4199  0.0956  0.1245
    2ALA      O   16   1.275   1.668   2.727  0.0054  0.0451  0.2017
    3NME      N   17   1.453   1.777   2.789  0.0769  0.1435  0.4563
    3NME      H   18   1.553   1.772   2.807  0.5353 -0.5912 -1.9847
    3NME    CH3   19   1.386   1.901   2.807  0.2926 -0.3951 -0.2765
    3NME   HH31   20   1.278   1.896   2.798  0.0635  1.1419  1.0851
    3NME   HH32   21   1.426   1.955   2.893  0.0847 -0.8011  0.0756
    3NME   HH33   22   1.396   1.953   2.711 -2.3800 -0.9369 -0.9149
   3.02334   3.02334   3.02334
