Generated by trjconv : Alanine in vacuum in water t=   0.00000
   22
    1ACE   HH31    1   1.841   1.486   2.828 -0.6604 -0.4599  2.0983
    1ACE    CH3    2   1.770   1.565   2.802  0.7296  0.3127  0.3831
    1ACE   HH32    3   1.799   1.600   2.703  0.8983 -1.0674 -0.0793
    1ACE   HH33    4   1.768   1.650   2.869 -2.5775  3.0204 -2.7488
    1ACE      C    5   1.631   1.502   2.799  0.1604  0.1839 -0.4188
    1ACE      O    6   1.624   1.380   2.810  0.2555 -0.5674  0.5462
    2ALA      N    7   1.521   1.580   2.787  0.3653 -0.3472 -0.6693
    2ALA      H    8   1.537   1.676   2.760 -0.5083  0.5604  1.7426
    2ALA     CA    9   1.377   1.540   2.770 -0.4065  0.0715 -0.1342
    2ALA     HA   10   1.372   1.434   2.750 -0.7187 -0.3856  2.0624
    2ALA     CB   11   1.296   1.562   2.905  0.1006  0.0104 -0.2255
    2ALA    HB1   12   1.307   1.664   2.944 -1.5188  0.4430 -0.8370
    2ALA    HB2   13   1.189   1.558   2.884 -0.7800 -2.9270  3.7183
    2ALA    HB3   14   1.341   1.493   2.976  1.0094  3.0427  2.3850
    2ALA      C   15   1.325   1.614   2.645 -0.0013  0.2933 -0.4061
    2ALA      O   16   1.372   1.722   2.618 -0.3604 -0.3571  0.0842
    3NME      N   17   1.218   1.570   2.582 -0.8385 -0.0490 -0.2193
    3NME      H   18   1.191   1.474   2.599 -0.2236 -0.4819 -1.5221
    3NME    CH3   19   1.156   1.640   2.471  0.5089  0.4024  0.7332
    3NME   HH31   20   1.147   1.748   2.484  0.3838  0.7323 -1.6559
    3NME   HH32   21   1.206   1.630   2.375 -0.3731  0.6856  0.2397
    3NME   HH33   22   1.059   1.595   2.452  0.3036  1.8378 -2.2455
   3.02334   3.02334   3.02334
