Generated by trjconv : Alanine in vacuum in water t=   0.00000
   22
    1ACE   HH31    1   1.489   1.610   2.388 -0.0877  1.1903  1.2339
    1ACE    CH3    2   1.385   1.582   2.400 -0.1597  0.6879 -0.2545
    1ACE   HH32    3   1.364   1.521   2.313  1.0409 -1.6430  0.9847
    1ACE   HH33    4   1.342   1.682   2.398  1.5170  1.5577  2.2147
    1ACE      C    5   1.364   1.515   2.535 -0.4394 -0.7683  0.6408
    1ACE      O    6   1.249   1.515   2.575  0.2137  0.1200 -0.0038
    2ALA      N    7   1.471   1.490   2.611  0.0973 -0.2472  0.2532
    2ALA      H    8   1.562   1.518   2.578  1.1284 -0.0253  2.9634
    2ALA     CA    9   1.470   1.471   2.757 -0.0604  0.0128  0.3085
    2ALA     HA   10   1.380   1.417   2.787  1.6305 -2.6261  0.9008
    2ALA     CB   11   1.594   1.382   2.797  0.0954  0.0212 -0.0133
    2ALA    HB1   12   1.590   1.276   2.769  0.9263  0.0224 -0.1533
    2ALA    HB2   13   1.683   1.417   2.745 -2.2124  1.0045 -3.7344
    2ALA    HB3   14   1.596   1.383   2.906 -0.5384 -2.8792  0.1160
    2ALA      C   15   1.472   1.600   2.830 -0.0820 -0.1829 -0.3992
    2ALA      O   16   1.577   1.647   2.886 -0.3356  0.5242 -0.2147
    3NME      N   17   1.358   1.680   2.836  0.1073  0.6441  0.0145
    3NME      H   18   1.270   1.649   2.798  0.7455  1.8819 -2.6378
    3NME    CH3   19   1.346   1.781   2.941  0.4638 -0.7785 -0.3427
    3NME   HH31   20   1.411   1.868   2.925 -0.8743  0.0555 -1.5313
    3NME   HH32   21   1.249   1.825   2.963  0.4093 -0.9733 -0.1924
    3NME   HH33   22   1.374   1.718   3.025 -2.4199 -1.2997  0.3035
   3.02334   3.02334   3.02334
