Generated by trjconv : Alanine in vacuum in water t=   0.00000
   22
    1ACE   HH31    1   1.051   1.726   2.775  0.0757 -0.1917 -0.3444
    1ACE    CH3    2   1.151   1.724   2.819  0.1140  0.1227 -0.4154
    1ACE   HH32    3   1.133   1.663   2.907  0.3870 -0.0032 -0.4454
    1ACE   HH33    4   1.167   1.826   2.852 -1.4246  0.1172  0.4481
    1ACE      C    5   1.264   1.667   2.732  0.2601 -0.3637  0.1722
    1ACE      O    6   1.241   1.620   2.628 -0.0795 -0.3924  0.2052
    2ALA      N    7   1.387   1.684   2.775 -0.1176 -0.1196 -0.8538
    2ALA      H    8   1.398   1.723   2.868 -0.4659 -1.9531  0.0030
    2ALA     CA    9   1.514   1.647   2.709 -0.2017  0.7054  0.0223
    2ALA     HA   10   1.496   1.681   2.607 -1.3635 -1.2108 -0.4465
    2ALA     CB   11   1.635   1.721   2.772 -0.0746  0.2784 -0.1241
    2ALA    HB1   12   1.725   1.699   2.715 -0.7818  2.1611 -2.1117
    2ALA    HB2   13   1.624   1.829   2.785 -2.4589 -0.0325  0.9392
    2ALA    HB3   14   1.651   1.684   2.873  1.7637 -2.0572 -1.1632
    2ALA      C   15   1.546   1.496   2.707 -0.0835 -0.5432  0.1382
    2ALA      O   16   1.647   1.447   2.756  0.1469  0.3550  0.3799
    3NME      N   17   1.454   1.416   2.645 -0.1410 -0.0128 -0.0783
    3NME      H   18   1.374   1.465   2.608 -1.1794  1.1325  3.3295
    3NME    CH3   19   1.454   1.273   2.634  0.4858  0.3506  0.2424
    3NME   HH31   20   1.441   1.225   2.731  1.9026 -1.3784 -0.3786
    3NME   HH32   21   1.373   1.239   2.569 -0.7135 -1.1349  2.4177
    3NME   HH33   22   1.549   1.237   2.595  0.8261  0.4287  0.9950
   3.02334   3.02334   3.02334
