Generated by trjconv : Alanine in vacuum in water t=   0.00000
   22
    1ACE   HH31    1   1.217   1.303   2.902 -0.4129  0.3733 -0.2437
    1ACE    CH3    2   1.326   1.311   2.912 -0.4343 -0.1593  0.4827
    1ACE   HH32    3   1.367   1.222   2.864  0.8996  0.1262  1.0433
    1ACE   HH33    4   1.357   1.295   3.016 -1.0873  0.3090  0.7585
    1ACE      C    5   1.397   1.433   2.856 -0.1017  0.3069  0.3654
    1ACE      O    6   1.439   1.520   2.928  0.3333 -0.0195 -0.1144
    2ALA      N    7   1.410   1.440   2.728  0.8605  0.4792 -0.1148
    2ALA      H    8   1.381   1.363   2.670 -3.4131  2.7587 -1.4655
    2ALA     CA    9   1.505   1.523   2.654 -0.5574 -0.6681 -0.4502
    2ALA     HA   10   1.599   1.535   2.707 -0.4027  0.3079 -0.9200
    2ALA     CB   11   1.528   1.443   2.523  0.6095 -0.1646  0.0503
    2ALA    HB1   12   1.544   1.339   2.549 -0.6055 -0.2405  0.5542
    2ALA    HB2   13   1.441   1.466   2.463  0.6374  2.0278  0.7441
    2ALA    HB3   14   1.621   1.483   2.482  1.0255 -1.5151 -0.3801
    2ALA      C   15   1.461   1.672   2.630  0.5142 -0.0283 -0.3154
    2ALA      O   16   1.494   1.720   2.516 -0.3619  0.4245  0.1080
    3NME      N   17   1.397   1.740   2.729 -0.8246 -0.7000 -0.0935
    3NME      H   18   1.386   1.690   2.816  1.0602 -0.4560  0.3217
    3NME    CH3   19   1.335   1.872   2.697  0.1378  0.3183 -0.1878
    3NME   HH31   20   1.255   1.854   2.626 -0.5983 -2.3341  1.1994
    3NME   HH32   21   1.286   1.897   2.792  1.2560 -1.3167  0.8639
    3NME   HH33   22   1.403   1.953   2.668 -0.4068  1.3093  1.1762
   3.02334   3.02334   3.02334
