Generated by trjconv : Alanine in vacuum in water t=   0.00000
   22
    1ACE   HH31    1   1.241   1.866   2.557 -0.6442 -0.7503  1.2136
    1ACE    CH3    2   1.242   1.763   2.520  0.2873 -0.2542 -0.2406
    1ACE   HH32    3   1.248   1.757   2.411 -2.2755 -1.8363 -0.3738
    1ACE   HH33    4   1.142   1.738   2.554 -0.5432  0.2467 -2.1992
    1ACE      C    5   1.358   1.675   2.581  0.6786 -0.0890  0.4870
    1ACE      O    6   1.471   1.721   2.598  0.2559  0.3436  0.3314
    2ALA      N    7   1.316   1.554   2.627 -0.3373 -0.0212 -0.1896
    2ALA      H    8   1.218   1.538   2.642 -0.2974  1.6289  2.6758
    2ALA     CA    9   1.409   1.448   2.685  0.5052 -0.2459 -0.5443
    2ALA     HA   10   1.343   1.364   2.705 -0.0230  0.5932  1.5621
    2ALA     CB   11   1.510   1.399   2.583  0.2205 -0.0216 -0.1033
    2ALA    HB1   12   1.461   1.349   2.499  0.0158  1.3217 -0.8053
    2ALA    HB2   13   1.560   1.485   2.538  1.4007 -0.8188 -0.3651
    2ALA    HB3   14   1.563   1.322   2.639 -1.4200 -0.1217  1.3893
    2ALA      C   15   1.483   1.476   2.827 -0.3680  0.1747  0.3797
    2ALA      O   16   1.536   1.386   2.882 -0.1321  0.3692  0.0106
    3NME      N   17   1.459   1.598   2.867 -0.4719 -0.5053  0.2171
    3NME      H   18   1.383   1.637   2.813  0.4269 -0.9430 -1.4505
    3NME    CH3   19   1.502   1.651   2.994 -0.3730  0.0283 -0.4372
    3NME   HH31   20   1.449   1.602   3.077  1.4496  0.4275  1.0230
    3NME   HH32   21   1.604   1.628   3.024  0.0685  0.8596 -1.2815
    3NME   HH33   22   1.474   1.755   3.007 -0.2034  0.2542 -1.7350
   3.02334   3.02334   3.02334
