Generated by trjconv : Alanine in vacuum in water t=   0.00000
   22
    1ACE   HH31    1   1.755   1.809   2.700 -0.7169  0.7197 -0.0186
    1ACE    CH3    2   1.701   1.768   2.615 -0.1002 -0.1323 -0.0121
    1ACE   HH32    3   1.748   1.679   2.573  0.7603 -0.1079  0.8781
    1ACE   HH33    4   1.700   1.846   2.538  1.2236  0.4683  0.5565
    1ACE      C    5   1.558   1.739   2.664  0.5618 -0.4016  0.0396
    1ACE      O    6   1.491   1.833   2.707 -0.2477  0.1875 -0.2652
    2ALA      N    7   1.507   1.616   2.626 -0.2837 -0.2173  0.0742
    2ALA      H    8   1.571   1.553   2.580  0.3346  0.2400  0.2978
    2ALA     CA    9   1.374   1.575   2.670  1.2931  1.1061  0.2083
    2ALA     HA   10   1.320   1.655   2.721  0.3698  0.1493  0.7565
    2ALA     CB   11   1.291   1.529   2.548 -0.5483  0.0362  0.6958
    2ALA    HB1   12   1.186   1.531   2.577 -0.5885 -0.1785  0.5647
    2ALA    HB2   13   1.305   1.596   2.463  1.2738 -0.7630  0.3281
    2ALA    HB3   14   1.322   1.430   2.514  3.7918  1.4697 -0.1437
    2ALA      C   15   1.378   1.466   2.783  0.0522 -0.3717  0.1031
    2ALA      O   16   1.480   1.451   2.846 -0.4693  0.0047 -1.0303
    3NME      N   17   1.261   1.405   2.806  0.0214 -0.2071  0.1659
    3NME      H   18   1.177   1.437   2.760 -1.9340 -0.6807  3.1373
    3NME    CH3   19   1.248   1.305   2.906 -0.2800 -0.4018  0.0180
    3NME   HH31   20   1.158   1.244   2.904 -1.3918  1.0846  1.4758
    3NME   HH32   21   1.332   1.236   2.900  1.3399  1.5931 -2.3469
    3NME   HH33   22   1.254   1.370   2.993 -1.0957  0.8180 -0.8033
   3.02334   3.02334   3.02334
