Generated by trjconv : Alanine in vacuum in water t=   0.00000
   22
    1ACE   HH31    1   1.548   1.616   0.051 -1.9716  0.6633  1.3399
    1ACE    CH3    2   1.500   1.527   0.009  0.7230 -0.0666 -0.4112
    1ACE   HH32    3   1.407   1.512   0.062  0.9211  2.3284  0.7246
    1ACE   HH33    4   1.565   1.440  -0.006  0.2876 -1.0426  2.6637
    1ACE      C    5   1.461   1.563  -0.138 -0.3780 -0.3247  0.3668
    1ACE      O    6   1.518   1.658  -0.195 -0.3224 -0.6767 -0.0288
    2ALA      N    7   1.378   1.480  -0.194 -0.1978  0.1532  0.2227
    2ALA      H    8   1.338   1.416  -0.127  2.5763  1.4182  3.3747
    2ALA     CA    9   1.327   1.478  -0.334 -0.5122 -0.5886 -0.5041
    2ALA     HA   10   1.335   1.375  -0.369  3.3966 -0.3594 -0.6637
    2ALA     CB   11   1.176   1.508  -0.331 -0.1463  0.6101 -0.3384
    2ALA    HB1   12   1.139   1.433  -0.262  1.6126  1.3539  1.5140
    2ALA    HB2   13   1.167   1.609  -0.291 -1.9763 -0.1204  1.2328
    2ALA    HB3   14   1.130   1.498  -0.429  1.6733 -2.5170 -1.0013
    2ALA      C   15   1.399   1.571  -0.432 -0.5309 -0.2407 -0.0361
    2ALA      O   16   1.347   1.673  -0.480  0.4232  0.4415  0.3082
    3NME      N   17   1.535   1.556  -0.454  0.5700 -0.0145 -0.5302
    3NME      H   18   1.576   1.476  -0.408 -0.9375 -0.4262  0.1330
    3NME    CH3   19   1.630   1.655  -0.509 -0.3642  0.4554 -0.0495
    3NME   HH31   20   1.607   1.672  -0.614 -0.1305  1.3621  0.0381
    3NME   HH32   21   1.619   1.744  -0.448  1.8019 -0.8933  2.5162
    3NME   HH33   22   1.728   1.611  -0.491  0.3739  1.8844 -0.4455
   3.02334   3.02334   3.02334
