Generated by trjconv : Alanine in vacuum in water t=   0.00000
   22
    1ACE   HH31    1   1.704   1.328   2.596  1.1134  0.5139 -2.0523
    1ACE    CH3    2   1.740   1.411   2.657 -0.9691  0.3028 -0.3932
    1ACE   HH32    3   1.829   1.443   2.601 -0.0508  0.2684  0.9994
    1ACE   HH33    4   1.776   1.384   2.756  0.3590  0.3080 -0.8537
    1ACE      C    5   1.651   1.532   2.665  0.2637  0.5762 -0.3677
    1ACE      O    6   1.708   1.641   2.679  0.5990  0.1896  0.6293
    2ALA      N    7   1.520   1.507   2.672  0.3107 -0.2147  0.3468
    2ALA      H    8   1.489   1.412   2.684  0.1185 -0.4078 -1.4222
    2ALA     CA    9   1.420   1.611   2.690  0.2991 -0.2431 -0.2367
    2ALA     HA   10   1.461   1.687   2.756  0.6965 -2.8241  2.7682
    2ALA     CB   11   1.389   1.666   2.556 -0.1543  0.2892 -0.3644
    2ALA    HB1   12   1.337   1.760   2.572 -0.0750  0.1315  0.9764
    2ALA    HB2   13   1.473   1.690   2.491 -0.8775  0.3750 -1.2849
    2ALA    HB3   14   1.320   1.600   2.504 -0.7668  0.4346  0.2551
    2ALA      C   15   1.291   1.564   2.770  0.0636  0.0007  0.9348
    2ALA      O   16   1.258   1.447   2.760 -0.8113 -0.3749 -0.0330
    3NME      N   17   1.218   1.661   2.827  0.4176 -0.4575 -0.4809
    3NME      H   18   1.239   1.757   2.802  0.5224 -0.2006  0.5675
    3NME    CH3   19   1.099   1.643   2.901  0.1342  0.1845 -0.2385
    3NME   HH31   20   1.071   1.538   2.909 -0.9603  0.5200  0.5783
    3NME   HH32   21   1.098   1.675   3.005 -2.7558 -0.5785  0.0513
    3NME   HH33   22   1.006   1.672   2.853  0.2451  0.5171 -0.2536
   3.02334   3.02334   3.02334
