Generated by trjconv : Alanine in vacuum in water t=   0.00000
   22
    1ACE   HH31    1   1.833   1.573   2.634  1.1920 -0.0609  2.2943
    1ACE    CH3    2   1.764   1.656   2.647  0.3327 -0.1444 -0.9507
    1ACE   HH32    3   1.714   1.685   2.554  0.6989 -2.4325 -1.9096
    1ACE   HH33    4   1.814   1.747   2.679 -1.0714  0.0223  0.9585
    1ACE      C    5   1.655   1.629   2.753 -0.3420  1.0194  0.6757
    1ACE      O    6   1.665   1.680   2.864  0.0038  0.1322  0.4705
    2ALA      N    7   1.542   1.563   2.712 -0.0293  0.0877  0.2391
    2ALA      H    8   1.547   1.516   2.622  0.2975 -0.9475  0.7775
    2ALA     CA    9   1.411   1.560   2.776 -0.0894  0.0110  0.5974
    2ALA     HA   10   1.423   1.491   2.859 -0.3224 -0.3287  0.3497
    2ALA     CB   11   1.365   1.701   2.817  1.0436 -0.2738 -0.0310
    2ALA    HB1   12   1.345   1.764   2.730 -0.8634 -0.5905  0.1265
    2ALA    HB2   13   1.270   1.691   2.870  1.4398 -0.0062  0.7354
    2ALA    HB3   14   1.439   1.743   2.884  0.2548  0.0559  0.6523
    2ALA      C   15   1.306   1.496   2.682 -0.9491  0.0303 -0.2649
    2ALA      O   16   1.328   1.468   2.565 -0.6251  0.2128 -0.1360
    3NME      N   17   1.188   1.475   2.730  0.9902 -0.0742 -0.2390
    3NME      H   18   1.157   1.515   2.817 -2.7946 -3.6895  0.4170
    3NME    CH3   19   1.074   1.447   2.642  0.0608 -0.5001 -0.8513
    3NME   HH31   20   1.045   1.342   2.631 -2.0397  0.0066 -0.5175
    3NME   HH32   21   0.986   1.505   2.669  0.6259 -0.6503  1.5371
    3NME   HH33   22   1.101   1.472   2.539 -1.5848  1.2603 -0.9042
   3.02334   3.02334   3.02334
