Generated by trjconv : Alanine in vacuum in water t=   0.00000
   22
    1ACE   HH31    1   1.074   1.525   2.891  0.1553  0.4900 -0.9775
    1ACE    CH3    2   1.161   1.461   2.906 -0.2933  0.0339 -0.2992
    1ACE   HH32    3   1.143   1.362   2.864  0.5982 -2.0789  3.7364
    1ACE   HH33    4   1.183   1.439   3.011  1.9775 -1.3507 -0.9971
    1ACE      C    5   1.282   1.521   2.834  0.2423  0.5961 -0.2298
    1ACE      O    6   1.371   1.562   2.904 -0.0602 -0.1144  0.6567
    2ALA      N    7   1.281   1.535   2.702 -0.1456 -0.6574 -0.0022
    2ALA      H    8   1.202   1.508   2.645 -1.1661  1.5228  0.2643
    2ALA     CA    9   1.375   1.615   2.616 -0.2481  0.3760  0.2228
    2ALA     HA   10   1.345   1.577   2.519 -1.0896 -0.9221  0.9529
    2ALA     CB   11   1.348   1.768   2.627 -0.4728 -0.2532 -0.1489
    2ALA    HB1   12   1.395   1.810   2.716  0.3067 -2.2207  0.4047
    2ALA    HB2   13   1.390   1.818   2.539  1.8655  0.4543  1.2814
    2ALA    HB3   14   1.240   1.781   2.624 -0.4568 -0.1079 -0.1351
    2ALA      C   15   1.531   1.588   2.613  1.3651  0.7222  0.0653
    2ALA      O   16   1.607   1.627   2.521  0.3241 -0.2109 -0.4942
    3NME      N   17   1.584   1.516   2.714 -0.2310  0.4942  0.0925
    3NME      H   18   1.525   1.501   2.795 -0.7329 -2.0550 -0.6650
    3NME    CH3   19   1.730   1.486   2.728 -0.4915 -0.3898 -0.3057
    3NME   HH31   20   1.785   1.579   2.712  0.9185 -1.0988  0.2704
    3NME   HH32   21   1.744   1.455   2.831 -2.7218  1.7336  0.7430
    3NME   HH33   22   1.776   1.414   2.661  0.1788  0.1337 -0.4260
   3.02334   3.02334   3.02334
