Generated by trjconv : Alanine in vacuum in water t=   0.00000
   22
    1ACE   HH31    1   1.145   1.626   2.514 -1.5005 -0.4437  0.3247
    1ACE    CH3    2   1.165   1.707   2.584  0.2294 -0.7262  0.1994
    1ACE   HH32    3   1.087   1.743   2.651 -1.6596 -2.4220 -0.9912
    1ACE   HH33    4   1.202   1.789   2.521 -0.2094  0.9011  1.9673
    1ACE      C    5   1.281   1.667   2.664  0.4416  0.3928 -0.3408
    1ACE      O    6   1.269   1.662   2.786 -0.7143  0.3112 -0.0096
    2ALA      N    7   1.392   1.635   2.594  0.5809  0.3257 -0.0395
    2ALA      H    8   1.378   1.641   2.495 -0.5138 -0.8822  0.0152
    2ALA     CA    9   1.522   1.615   2.651 -0.1071  0.0351  0.0978
    2ALA     HA   10   1.594   1.606   2.570 -0.6525  0.0080 -0.3894
    2ALA     CB   11   1.583   1.736   2.720  0.2001 -0.3806  0.1238
    2ALA    HB1   12   1.685   1.713   2.751  0.0316 -2.0962 -0.4821
    2ALA    HB2   13   1.585   1.821   2.652  0.7907  1.1140  1.9178
    2ALA    HB3   14   1.533   1.756   2.815  0.9092  1.4474  0.1517
    2ALA      C   15   1.540   1.482   2.734 -0.4877 -0.2852  0.3623
    2ALA      O   16   1.639   1.412   2.710  0.0756  0.1891 -0.6463
    3NME      N   17   1.452   1.447   2.821 -0.0454 -0.0425 -0.0038
    3NME      H   18   1.373   1.510   2.829  0.3514  0.5494 -0.6178
    3NME    CH3   19   1.445   1.325   2.901  0.0560  0.1617  0.2453
    3NME   HH31   20   1.405   1.351   2.999  1.4993  1.3951  0.5405
    3NME   HH32   21   1.385   1.255   2.843  0.4994 -0.0628  0.0617
    3NME   HH33   22   1.542   1.280   2.921 -0.8103 -1.8249  0.3191
   3.02334   3.02334   3.02334
