Generated by trjconv : Alanine in vacuum in water t=   0.00000
   22
    1ACE   HH31    1   1.323   1.669   0.011  1.0854 -0.4581 -3.2216
    1ACE    CH3    2   1.229   1.631  -0.028 -0.7690 -0.2003  0.6057
    1ACE   HH32    3   1.194   1.729  -0.062  1.3571  0.4660  0.2131
    1ACE   HH33    4   1.163   1.579   0.042 -0.8689 -0.8750  0.0189
    1ACE      C    5   1.259   1.554  -0.150 -0.2411  0.1487  0.0829
    1ACE      O    6   1.179   1.462  -0.184 -0.2235  0.2464 -0.0466
    2ALA      N    7   1.374   1.581  -0.214  1.0692 -0.1730  0.1110
    2ALA      H    8   1.413   1.672  -0.194 -1.1479  0.5813  1.3254
    2ALA     CA    9   1.412   1.520  -0.342 -0.1461 -0.0927  0.0454
    2ALA     HA   10   1.424   1.411  -0.338 -2.9433 -0.6032 -1.9273
    2ALA     CB   11   1.319   1.538  -0.458  0.5117 -0.5703 -0.2266
    2ALA    HB1   12   1.313   1.643  -0.489  1.0015 -0.8953 -1.4797
    2ALA    HB2   13   1.363   1.497  -0.549 -0.7097  0.4620 -1.3333
    2ALA    HB3   14   1.220   1.502  -0.431  0.1816  0.7393  0.3998
    2ALA      C   15   1.546   1.591  -0.381 -0.0804  0.5394 -0.2395
    2ALA      O   16   1.574   1.694  -0.324 -0.0393  0.4114 -0.1684
    3NME      N   17   1.626   1.522  -0.464 -0.5833 -0.0867  0.3301
    3NME      H   18   1.607   1.427  -0.494 -2.0461  1.2261 -3.5195
    3NME    CH3   19   1.757   1.580  -0.505  0.7002 -0.5624  0.2662
    3NME   HH31   20   1.837   1.531  -0.449  0.1448 -0.5360  1.0993
    3NME   HH32   21   1.772   1.568  -0.612 -0.3087  2.3263 -0.2832
    3NME   HH33   22   1.759   1.688  -0.489  1.9675 -0.4766 -0.3750
   3.02334   3.02334   3.02334
