Generated by trjconv : Alanine in vacuum in water t=   0.00000
   22
    1ACE   HH31    1   1.487   1.434   2.353  1.0854  2.1710  0.5936
    1ACE    CH3    2   1.511   1.389   2.450 -0.1986  0.1788  0.0485
    1ACE   HH32    3   1.618   1.370   2.459  0.1487  0.1330 -3.0923
    1ACE   HH33    4   1.447   1.301   2.461  1.8601 -1.3518  0.5085
    1ACE      C    5   1.472   1.496   2.552 -0.6245 -0.7150 -0.6248
    1ACE      O    6   1.410   1.595   2.522  0.7388 -0.2286  0.3934
    2ALA      N    7   1.530   1.473   2.674 -0.0176  0.3918  0.2046
    2ALA      H    8   1.593   1.394   2.679  2.2182  2.1586  2.6456
    2ALA     CA    9   1.527   1.553   2.796 -1.0457 -0.5657  0.3802
    2ALA     HA   10   1.563   1.491   2.877 -0.4839 -3.7922 -2.1568
    2ALA     CB   11   1.622   1.669   2.774 -0.1622  0.4460  0.0304
    2ALA    HB1   12   1.573   1.735   2.702  1.8369  1.1701 -0.7288
    2ALA    HB2   13   1.638   1.724   2.866 -1.2855 -1.7157  1.5983
    2ALA    HB3   14   1.717   1.633   2.733 -1.3794  0.9249 -3.6113
    2ALA      C   15   1.394   1.605   2.855  0.7897  0.2200  0.5006
    2ALA      O   16   1.395   1.652   2.967  0.3613  0.1097  0.2012
    3NME      N   17   1.282   1.598   2.774 -0.3850  0.1663 -0.5962
    3NME      H   18   1.287   1.556   2.682 -0.6827  0.9820 -0.9922
    3NME    CH3   19   1.153   1.644   2.820 -0.2847  0.0427 -0.1995
    3NME   HH31   20   1.079   1.583   2.767  0.8276 -0.8969 -0.7206
    3NME   HH32   21   1.146   1.636   2.928  2.6834 -1.1033  0.0111
    3NME   HH33   22   1.148   1.751   2.800 -0.5145  0.1361  0.3343
   3.02334   3.02334   3.02334
